<?xml version="1.0"?>
<VTKFile type="UnstructuredGrid"  version="0.1"  >
<UnstructuredGrid>
<Piece  NumberOfPoints="4881" NumberOfCells="9600">
<Points>
<DataArray  type="Float64"  NumberOfComponents="3"  format="ascii">0 0 0  0.001036163291847321 0 0  0.002072326583694641 0 0  0.003108489875541962 0 0  0.004144653167389283 0 0  0.005180816459236603 0 0  0.006216979751083923 0 0  0.007253143042931244 0 0  0.008289306334778566 0 0  0.009325469626625886 0 0  0.01036163291847321 0 0  0.01139779621032053 0 0  0.01243395950216785 0 0  0.01347012279401517 0 0  0.01450628608586249 0 0  0.01554244937770981 0 0  0.01657861266955713 0 0  0.01761477596140445 0 0  0.01865093925325177 0 0  0.01968710254509909 0 0  0.02072326583694641 0 0  0.06968710254509909 0 0  0.1186509392532518 0 0  0.1676147759614045 0 0  0.2165786126695571 0 0  0.2655424493777098 0 0  0.3145062860858625 0 0  0.3634701227940151 0 0  0.4124339595021678 0 0  0.4613977962103205 0 0  0.5103616329184733 0 0  0.5593254696266259 0 0  0.6082893063347786 0 0  0.6572531430429313 0 0  0.7062169797510839 0 0  0.7551808164592365 0 0  0.8041446531673893 0 0  0.8531084898755419 0 0  0.9020723265836946 0 0  0.9510361632918474 0 0  1 0 0  0 0.025 0  0.001036163291847321 0.025 0  0.002072326583694641 0.025 0  0.003108489875541962 0.025 0  0.004144653167389283 0.025 0  0.005180816459236603 0.025 0  0.006216979751083923 0.025 0  0.007253143042931244 0.025 0  0.008289306334778566 0.025 0  0.009325469626625886 0.025 0  0.01036163291847321 0.025 0  0.01139779621032053 0.025 0  0.01243395950216785 0.025 0  0.01347012279401517 0.025 0  0.01450628608586249 0.025 0  0.01554244937770981 0.025 0  0.01657861266955713 0.025 0  0.01761477596140445 0.025 0  0.01865093925325177 0.025 0  0.01968710254509909 0.025 0  0.02072326583694641 0.025 0  0.06968710254509909 0.025 0  0.1186509392532518 0.025 0  0.1676147759614045 0.025 0  0.2165786126695571 0.025 0  0.2655424493777098 0.025 0  0.3145062860858625 0.025 0  0.3634701227940151 0.025 0  0.4124339595021678 0.025 0  0.4613977962103205 0.025 0  0.5103616329184733 0.025 0  0.5593254696266259 0.025 0  0.6082893063347786 0.025 0  0.6572531430429313 0.025 0  0.7062169797510839 0.025 0  0.7551808164592365 0.025 0  0.8041446531673893 0.025 0  0.8531084898755419 0.025 0  0.9020723265836946 0.025 0  0.9510361632918474 0.025 0  1 0.025 0  0 0.05 0  0.001036163291847321 0.05 0  0.002072326583694641 0.05 0  0.003108489875541962 0.05 0  0.004144653167389283 0.05 0  0.005180816459236603 0.05 0  0.006216979751083923 0.05 0  0.007253143042931244 0.05 0  0.008289306334778566 0.05 0  0.009325469626625886 0.05 0  0.01036163291847321 0.05 0  0.01139779621032053 0.05 0  0.01243395950216785 0.05 0  0.01347012279401517 0.05 0  0.01450628608586249 0.05 0  0.01554244937770981 0.05 0  0.01657861266955713 0.05 0  0.01761477596140445 0.05 0  0.01865093925325177 0.05 0  0.01968710254509909 0.05 0  0.02072326583694641 0.05 0  0.06968710254509909 0.05 0  0.1186509392532518 0.05 0  0.1676147759614045 0.05 0  0.2165786126695571 0.05 0  0.2655424493777098 0.05 0  0.3145062860858625 0.05 0  0.3634701227940151 0.05 0  0.4124339595021678 0.05 0  0.4613977962103205 0.05 0  0.5103616329184733 0.05 0  0.5593254696266259 0.05 0  0.6082893063347786 0.05 0  0.6572531430429313 0.05 0  0.7062169797510839 0.05 0  0.7551808164592365 0.05 0  0.8041446531673893 0.05 0  0.8531084898755419 0.05 0  0.9020723265836946 0.05 0  0.9510361632918474 0.05 0  1 0.05 0  0 0.075 0  0.001036163291847321 0.075 0  0.002072326583694641 0.075 0  0.003108489875541962 0.075 0  0.004144653167389283 0.075 0  0.005180816459236603 0.075 0  0.006216979751083923 0.075 0  0.007253143042931244 0.075 0  0.008289306334778566 0.075 0  0.009325469626625886 0.075 0  0.01036163291847321 0.075 0  0.01139779621032053 0.075 0  0.01243395950216785 0.075 0  0.01347012279401517 0.075 0  0.01450628608586249 0.075 0  0.01554244937770981 0.075 0  0.01657861266955713 0.075 0  0.01761477596140445 0.075 0  0.01865093925325177 0.075 0  0.01968710254509909 0.075 0  0.02072326583694641 0.075 0  0.06968710254509909 0.075 0  0.1186509392532518 0.075 0  0.1676147759614045 0.075 0  0.2165786126695571 0.075 0  0.2655424493777098 0.075 0  0.3145062860858625 0.075 0  0.3634701227940151 0.075 0  0.4124339595021678 0.075 0  0.4613977962103205 0.075 0  0.5103616329184733 0.075 0  0.5593254696266259 0.075 0  0.6082893063347786 0.075 0  0.6572531430429313 0.075 0  0.7062169797510839 0.075 0  0.7551808164592365 0.075 0  0.8041446531673893 0.075 0  0.8531084898755419 0.075 0  0.9020723265836946 0.075 0  0.9510361632918474 0.075 0  1 0.075 0  0 0.1 0  0.001036163291847321 0.1 0  0.002072326583694641 0.1 0  0.003108489875541962 0.1 0  0.004144653167389283 0.1 0  0.005180816459236603 0.1 0  0.006216979751083923 0.1 0  0.007253143042931244 0.1 0  0.008289306334778566 0.1 0  0.009325469626625886 0.1 0  0.01036163291847321 0.1 0  0.01139779621032053 0.1 0  0.01243395950216785 0.1 0  0.01347012279401517 0.1 0  0.01450628608586249 0.1 0  0.01554244937770981 0.1 0  0.01657861266955713 0.1 0  0.01761477596140445 0.1 0  0.01865093925325177 0.1 0  0.01968710254509909 0.1 0  0.02072326583694641 0.1 0  0.06968710254509909 0.1 0  0.1186509392532518 0.1 0  0.1676147759614045 0.1 0  0.2165786126695571 0.1 0  0.2655424493777098 0.1 0  0.3145062860858625 0.1 0  0.3634701227940151 0.1 0  0.4124339595021678 0.1 0  0.4613977962103205 0.1 0  0.5103616329184733 0.1 0  0.5593254696266259 0.1 0  0.6082893063347786 0.1 0  0.6572531430429313 0.1 0  0.7062169797510839 0.1 0  0.7551808164592365 0.1 0  0.8041446531673893 0.1 0  0.8531084898755419 0.1 0  0.9020723265836946 0.1 0  0.9510361632918474 0.1 0  1 0.1 0  0 0.125 0  0.001036163291847321 0.125 0  0.002072326583694641 0.125 0  0.003108489875541962 0.125 0  0.004144653167389283 0.125 0  0.005180816459236603 0.125 0  0.006216979751083923 0.125 0  0.007253143042931244 0.125 0  0.008289306334778566 0.125 0  0.009325469626625886 0.125 0  0.01036163291847321 0.125 0  0.01139779621032053 0.125 0  0.01243395950216785 0.125 0  0.01347012279401517 0.125 0  0.01450628608586249 0.125 0  0.01554244937770981 0.125 0  0.01657861266955713 0.125 0  0.01761477596140445 0.125 0  0.01865093925325177 0.125 0  0.01968710254509909 0.125 0  0.02072326583694641 0.125 0  0.06968710254509909 0.125 0  0.1186509392532518 0.125 0  0.1676147759614045 0.125 0  0.2165786126695571 0.125 0  0.2655424493777098 0.125 0  0.3145062860858625 0.125 0  0.3634701227940151 0.125 0  0.4124339595021678 0.125 0  0.4613977962103205 0.125 0  0.5103616329184733 0.125 0  0.5593254696266259 0.125 0  0.6082893063347786 0.125 0  0.6572531430429313 0.125 0  0.7062169797510839 0.125 0  0.7551808164592365 0.125 0  0.8041446531673893 0.125 0  0.8531084898755419 0.125 0  0.9020723265836946 0.125 0  0.9510361632918474 0.125 0  1 0.125 0  0 0.15 0  0.001036163291847321 0.15 0  0.002072326583694641 0.15 0  0.003108489875541962 0.15 0  0.004144653167389283 0.15 0  0.005180816459236603 0.15 0  0.006216979751083923 0.15 0  0.007253143042931244 0.15 0  0.008289306334778566 0.15 0  0.009325469626625886 0.15 0  0.01036163291847321 0.15 0  0.01139779621032053 0.15 0  0.01243395950216785 0.15 0  0.01347012279401517 0.15 0  0.01450628608586249 0.15 0  0.01554244937770981 0.15 0  0.01657861266955713 0.15 0  0.01761477596140445 0.15 0  0.01865093925325177 0.15 0  0.01968710254509909 0.15 0  0.02072326583694641 0.15 0  0.06968710254509909 0.15 0  0.1186509392532518 0.15 0  0.1676147759614045 0.15 0  0.2165786126695571 0.15 0  0.2655424493777098 0.15 0  0.3145062860858625 0.15 0  0.3634701227940151 0.15 0  0.4124339595021678 0.15 0  0.4613977962103205 0.15 0  0.5103616329184733 0.15 0  0.5593254696266259 0.15 0  0.6082893063347786 0.15 0  0.6572531430429313 0.15 0  0.7062169797510839 0.15 0  0.7551808164592365 0.15 0  0.8041446531673893 0.15 0  0.8531084898755419 0.15 0  0.9020723265836946 0.15 0  0.9510361632918474 0.15 0  1 0.15 0  0 0.175 0  0.001036163291847321 0.175 0  0.002072326583694641 0.175 0  0.003108489875541962 0.175 0  0.004144653167389283 0.175 0  0.005180816459236603 0.175 0  0.006216979751083923 0.175 0  0.007253143042931244 0.175 0  0.008289306334778566 0.175 0  0.009325469626625886 0.175 0  0.01036163291847321 0.175 0  0.01139779621032053 0.175 0  0.01243395950216785 0.175 0  0.01347012279401517 0.175 0  0.01450628608586249 0.175 0  0.01554244937770981 0.175 0  0.01657861266955713 0.175 0  0.01761477596140445 0.175 0  0.01865093925325177 0.175 0  0.01968710254509909 0.175 0  0.02072326583694641 0.175 0  0.06968710254509909 0.175 0  0.1186509392532518 0.175 0  0.1676147759614045 0.175 0  0.2165786126695571 0.175 0  0.2655424493777098 0.175 0  0.3145062860858625 0.175 0  0.3634701227940151 0.175 0  0.4124339595021678 0.175 0  0.4613977962103205 0.175 0  0.5103616329184733 0.175 0  0.5593254696266259 0.175 0  0.6082893063347786 0.175 0  0.6572531430429313 0.175 0  0.7062169797510839 0.175 0  0.7551808164592365 0.175 0  0.8041446531673893 0.175 0  0.8531084898755419 0.175 0  0.9020723265836946 0.175 0  0.9510361632918474 0.175 0  1 0.175 0  0 0.2 0  0.001036163291847321 0.2 0  0.002072326583694641 0.2 0  0.003108489875541962 0.2 0  0.004144653167389283 0.2 0  0.005180816459236603 0.2 0  0.006216979751083923 0.2 0  0.007253143042931244 0.2 0  0.008289306334778566 0.2 0  0.009325469626625886 0.2 0  0.01036163291847321 0.2 0  0.01139779621032053 0.2 0  0.01243395950216785 0.2 0  0.01347012279401517 0.2 0  0.01450628608586249 0.2 0  0.01554244937770981 0.2 0  0.01657861266955713 0.2 0  0.01761477596140445 0.2 0  0.01865093925325177 0.2 0  0.01968710254509909 0.2 0  0.02072326583694641 0.2 0  0.06968710254509909 0.2 0  0.1186509392532518 0.2 0  0.1676147759614045 0.2 0  0.2165786126695571 0.2 0  0.2655424493777098 0.2 0  0.3145062860858625 0.2 0  0.3634701227940151 0.2 0  0.4124339595021678 0.2 0  0.4613977962103205 0.2 0  0.5103616329184733 0.2 0  0.5593254696266259 0.2 0  0.6082893063347786 0.2 0  0.6572531430429313 0.2 0  0.7062169797510839 0.2 0  0.7551808164592365 0.2 0  0.80414
[...]
<PointData  Vectors="f_1000"> 
<DataArray  type="Float64"  Name="f_1000"  NumberOfComponents="3" format="ascii">5.7740285338887730e-25 -0.0000000000000000e+00 0.0000000000000000e+00  3.4400040954791849e-22 -0.0000000000000000e+00 0.0000000000000000e+00  1.7963169191885289e-21 0.0000000000000000e+00 0.0000000000000000e+00  4.1674812258364848e-21 0.0000000000000000e+00 0.0000000000000000e+00  2.8380602332451046e-22 0.0000000000000000e+00 0.0000000000000000e+00  6.0680431717956155e-22 0.0000000000000000e+00 0.0000000000000000e+00  1.0697534974411688e-21 0.0000000000000000e+00 0.0000000000000000e+00  -1.1611598719176590e-21 0.0000000000000000e+00 0.0000000000000000e+00  -4.8873011457089498e-23 0.0000000000000000e+00 0.0000000000000000e+00  -8.9308682882961152e-22 0.0000000000000000e+00 0.0000000000000000e+00  -6.5513042994102259e-21 0.0000000000000000e+00 0.0000000000000000e+00  -2.0635250648282595e-21 0.0000000000000000e+00 0.0000000000000000e+00  -2.7029145078524755e-24 0.0000000000000000e+00 0.0000000000000000e+00  7.6738018769487852e-25 0.0000000000000000e+00 0.0000000000000000e+00  9.2208802221009095e-25 0.0000000000000000e+00 0.0000000000000000e+00  -7.4653730300200175e-22 7.9689141961524823e-20 0.0000000000000000e+00  -3.5329993236159443e-21 -4.1280249024543850e-21 0.0000000000000000e+00  -1.1260676624534457e-21 0.0000000000000000e+00 0.0000000000000000e+00  -6.3068005183224616e-24 0.0000000000000000e+00 0.0000000000000000e+00  1.0061874943375526e-24 0.0000000000000000e+00 0.0000000000000000e+00  -5.7279586550774333e-25 -1.3217869662646291e-22 0.0000000000000000e+00  -4.7065906980466919e-22 -2.3813903005648109e-21 0.0000000000000000e+00  0.0000000000000000e+00 -3.5573855107202671e-21 0.0000000000000000e+00  0.0000000000000000e+00 -1.7639928152331918e-21 0.0000000000000000e+00  0.0000000000000000e+00 -1.0822830918461985e-21 0.0000000000000000e+00  0.0000000000000000e+00 0.0000000000000000e+00 0.0000000000000000e+00  0.0000000000000000e+00 -4.4070420500575921e-20 0.0000000000000000e+00  0.0000000000000000e+00 8.5259652736270947e-22 0.0000000000000000e+00  0.0000000000000000e+00 -2.3519904203109225e-22 0.0000000000000000e+00  0.0000000000000000e+00 1.6757931744715319e-21 0.0000000000000000e+00  0.0000000000000000e+00 -2.2931906598031471e-21 0.0000000000000000e+00  0.0000000000000000e+00 1.0583956891399151e-21 0.0000000000000000e+00  0.0000000000000000e+00 -9.4079616812437181e-22 0.0000000000000000e+00  0.0000000000000000e+00 8.8199640761659634e-23 0.0000000000000000e+00  0.0000000000000000e+00 5.2424522802328259e-22 0.0000000000000000e+00  0.0000000000000000e+00 -2.4026363099435674e-21 0.0000000000000000e+00  0.0000000000000000e+00 -2.0579916177720632e-22 0.0000000000000000e+00  0.0000000000000000e+00 -1.5581936534559824e-21 0.0000000000000000e+00  0.0000000000000000e+00 3.0281876661503126e-21 0.0000000000000000e+00  0.0000000000000000e+00 3.5279856304663904e-21 0.0000000000000000e+00  -9.8670321039017237e-22 2.7368037610552652e-22 0.0000000000000000e+00  -8.5941212042679309e-23 -0.0000000000000000e+00 0.0000000000000000e+00  3.1289010068000460e-08 -1.8442725990275205e-07 0.0000000000000000e+00  3.6214238863910773e-08 2.4250071372429828e-09 0.0000000000000000e+00  2.8140502556159458e-08 9.3584571221393865e-08 0.0000000000000000e+00  2.0622406057091448e-08 8.4377125151770641e-08 0.0000000000000000e+00  1.5140790946959974e-08 5.6973321620066674e-08 0.0000000000000000e+00  1.2094247294349091e-08 3.2034026367160515e-08 0.0000000000000000e+00  1.0450038181673051e-08 1.6798431344505986e-08 0.0000000000000000e+00  9.6566032224074585e-09 8.1901295844958783e-09 0.0000000000000000e+00  9.2787814222361482e-09 3.8437468418525695e-09 0.0000000000000000e+00  9.1128388293179198e-09 1.6965863268630298e-09 0.0000000000000000e+00  9.0449315636360838e-09 6.8225704203404563e-10 0.0000000000000000e+00  9.0237727408571146e-09 2.0583181605927058e-10 0.0000000000000000e+00  9.0235698119927379e-09 -9.4205071455032541e-12 0.0000000000000000e+00  9.0322451599961508e-09 -9.7495360241695580e-11 0.0000000000000000e+00  9.0433984339539410e-09 -1.1798747517183953e-10 0.0000000000000000e+00  9.0533884086602202e-09 -9.7986630242847622e-11 0.0000000000000000e+00  9.0598216546238006e-09 -5.2944522593653644e-11 0.0000000000000000e+00  9.0607460488906533e-09 2.3068232642842709e-12 0.0000000000000000e+00  9.0506215241388305e-09 2.1208336020109100e-10 0.0000000000000000e+00  9.0580936826664642e-09 5.0651994321516984e-10 0.0000000000000000e+00  1.7133502189894351e-08 3.3980322536698600e-09 0.0000000000000000e+00  1.2010173006822243e-08 6.1215869191086077e-10 0.0000000000000000e+00  9.1804152748768177e-09 1.5438278132519958e-10 0.0000000000000000e+00  7.6600999036663035e-09 1.7788895699681937e-10 0.0000000000000000e+00  6.5718357835594303e-09 2.1502996739943230e-10 0.0000000000000000e+00  5.6263766471281467e-09 2.2326192073748397e-10 0.0000000000000000e+00  4.7599998789898251e-09 2.1342930773487956e-10 0.0000000000000000e+00  3.9688262433811918e-09 1.9535372114491385e-10 0.0000000000000000e+00  3.2575614980885661e-09 1.7438014605019049e-10 0.0000000000000000e+00  2.6277422417824439e-09 1.5317698045033765e-10 0.0000000000000000e+00  2.0768911241816514e-09 1.3302180453483203e-10 0.0000000000000000e+00  1.5999807991331126e-09 1.1443120428887592e-10 0.0000000000000000e+00  1.1910272212168379e-09 9.7451061766071736e-11 0.0000000000000000e+00  8.4442653711405798e-10 8.1787381885553873e-11 0.0000000000000000e+00  5.5607815800416092e-10 6.6859923233564530e-11 0.0000000000000000e+00  3.2437195624671645e-10 5.1832494282537131e-11 0.0000000000000000e+00  1.5095255134459332e-10 3.5723570203713937e-11 0.0000000000000000e+00  4.0567076989372940e-11 1.8025473725488827e-11 0.0000000000000000e+00  -3.1410981414158821e-12 1.7755053251930436e-12 0.0000000000000000e+00  0.0000000000000000e+00 -4.5100265591300374e-22 0.0000000000000000e+00  2.5047131033649407e-21 2.5049442304686458e-20 0.0000000000000000e+00  5.4256958731808158e-08 -7.7323416077038292e-07 0.0000000000000000e+00  7.0056747613925667e-08 3.0882052886055671e-08 0.0000000000000000e+00  5.8091324776869434e-08 3.4752175259721533e-07 0.0000000000000000e+00  4.4799098170301349e-08 3.0990678283470976e-07 0.0000000000000000e+00  3.4786312998433798e-08 2.0431684965572838e-07 0.0000000000000000e+00  2.9187027017516394e-08 1.1285430438905547e-07 0.0000000000000000e+00  2.6308551869926100e-08 5.6728710625979098e-08 0.0000000000000000e+00  2.5047167601176532e-08 2.5764195640900569e-08 0.0000000000000000e+00  2.4576789801216923e-08 1.0362902200071348e-08 0.0000000000000000e+00  2.4485417650066431e-08 3.0564418270751530e-09 0.0000000000000000e+00  2.4554244654125526e-08 -1.9510655244018123e-10 0.0000000000000000e+00  2.4685616436031611e-08 -1.5594974843406410e-09 0.0000000000000000e+00  2.4835533254669268e-08 -2.0615780372884988e-09 0.0000000000000000e+00  2.4986986705096519e-08 -2.1847291351646951e-09 0.0000000000000000e+00  2.5134384199985553e-08 -2.1430861652599135e-09 0.0000000000000000e+00  2.5277212803792031e-08 -2.0309356597926830e-09 0.0000000000000000e+00  2.5416856625892003e-08 -1.8815501148465656e-09 0.0000000000000000e+00  2.5557389021798866e-08 -1.7473146565953040e-09 0.0000000000000000e+00  2.5694283822164132e-08 -1.6311741783142833e-09 0.0000000000000000e+00  2.5831753018833222e-08 -1.8775749122307331e-09 0.0000000000000000e+00  2.3793896108158174e-08 4.6355097962206327e-09 0.0000000000000000e+00  1.9317368323837870e-08 2.1232002952029778e-09 0.0000000000000000e+00  1.5944588809631072e-08 1.0427524590094865e-09 0.0000000000000000e+00  1.3735284043584376e-08 8.6631382337303340e-10 0.0000000000000000e+00  1.1964706665726525e-08 8.6439618877106523e-10 0.0000000000000000e+00  1.0343314181445493e-08 8.5006093109705425e-10 0.0000000000000000e+00  8.8180887135665248e-09 8.0400808418503079e-10 0.0000000000000000e+00  7.4020179494562452e-09 7.3718789584251421e-10 0.0000000000000000e+00  6.1132889748722119e-09 6.6109526678211795e-10 0.0000000000000000e+00  4.9610432249916983e-09 5.8347536943144081e-10 0.0000000000000000e+00  3.9454074088287848e-09 5.0879331247033242e-10 0.0000000000000000e+00  3.0606388424970722e-09 4.3916126983012691e-10 0.0000000000000000e+00  2.2982923744799820e-09 3.7501273665166246e-10 0.0000000000000000e+00  1.6498281546706488e-09 3.1550610192020273e-10 0.0000000000000000e+00  1.1087136773004130e-09 2.5874793838336373e-10 0.0000000000000000e+00  6.7209173195120332e-10 2.0198008545239071e-10 0.0000000000000000e+00  3.4174430879404958e-10 1.4207917141836612e-10 0.0000000000000000e+00  1.2304027492291109e-10 7.7519699052192597e-11 0.0000000000000000e+00  1.7719795022242808e-11 1.6131683642616632e-11 0.0000000000000000e+00  0.0000000000000000e+00 -4.0824654167559412e-21 0.0000000000000000e+00  1.2719246228025087e-21 2.7554386535155102e-20 0.0000000000000000e+00  7.7088501706047965e-08 -1.6532691343281189e-06 0.0000000000000000e+00  9.9817175908322040e-08 6.1761463311259520e-08 0.0000000000000000e+00  8.2552730048652181e-08 7.3288070318725420e-07 0.0000000000000000e+00  6.3656209214806220e-08 6.5927013626464281e-07 0.0000000000000000e+00  4.9386111030069579e-08 4.3179379243464466e-07 0.0000000000000000e+00  4.1308449243194385e-08 2.3769489829805142e-07 0.0000000000000000e+00  3.7090593837199785e-08 1.1762308910027869e-07 0.0000000000000000e+00  3.5179695786295378e-08 5.1790030006339438e-08 0.0000000000000000e+00  3.4426575122893623e-08 1.8984032086205197e-08 0.0000000000000000e+00  3.4247672227391293e-08 3.5185630418025608e-09 0.0000000000000000e+00  3.4331199122300790e-08 -3.3336751690526265e-09 0.0000000000000000e+00  3.4532548038649105e-08 -6.1704239424469893e-09 0.0000000000000000e+00  3.4782688150449311e-08 -7.1924070856902029e-09 0.0000000000000000e+00  3.5050497212194316e-08 -7.4273910781957687e-09 0.0000000000000000e+00  3.5321350283272919e-08 -7.3323165158246474e-09 0.0000000000000000e+00  3.5588283757934010e-08 -7.1098163264002466e-09 0.0000000000000000e+00  3.5846879322031532e-08 -6.8370672703000241e-09 0.0000000000000000e+00  3.6096274201999645e-08 -6.5564536534518304e-09 0.0000000000000000e+00  3.6331207956178886e-08 -6.1309721261696163e-09 0.0000000000000000e+00  3.6601673853547462e-08 -6.4125252391360217e-09 0.0000000000000000e+00  2.8473594091364508e-08 3.8492860826893784e-09 0.0000000000000000e+00  2.3820343138618478e-08 2.8001230944157568e-09 0.0000000000000000e+00  2.0723895803550994e-08 1.9649919910584659e-09 0.0000000000000000e+00  1.8347537335520670e-08 1.7889832237041142e-09 0.0000000000000000e+00  1.6214283735820535e-08 1.7919215840139313e-09 0.0000000000000000e+00  1.4152332036179186e-08 1.7664007413354984e-09 0.0000000000000000e+00  1.2158317297483987e-08 1.6805941756591552e-09 0.0000000000000000e+00  1.0274332830346611e-08 1.5512847467985138e-09 0.0000000000000000e+00  8.5376131782684375e-09 1.3997793214262978e-09 0.0000000000000000e+00  6.9691020490446995e-09 1.2419702202873356e-09 0.0000000000000000e+00  5.5753211537528788e-09 1.0877381831351801e-09 0.0000000000000000e+00  4.3531935270503733e-09 9.4218667435412642e-10 0.0000000000000000e+00  3.2946474902167699e-09 8.0684026552666168e-10 0.0000000000000000e+00  2.3903570492300577e-09 6.8048019573549555e-10 0.0000000000000000e+00  1.6326622671960496e-09 5.5969295391001975e-10 0.0000000000000000e+00  1.0177078762581224e-09 4.3940250081371429e-10 0.0000000000000000e+00  5.4641780678200730e-10 3.1406217845753935e-10 0.0000000000000000e+00  2.2292748017048458e-10 1.8143454441524645e-10 0.0000000000000000e+00  4.7379932821596854e-11 5.4503820148989795e-11 0.0000000000000000e+00  0.0000000000000000e+00 3.8713997514407432e-22 0.0000000000000000e+00  4.6963370688092672e-22 2.7554386535155132e-20 0.0000000000000000e+00  9.8818478503262341e-08 -2.7836919333260890e-06 0.0000000000000000e+00  1.2944404200350552e-07 1.1559100740915230e-07 0.0000000000000000e+00  1.0828200362748618e-07 1.2344424656682933e-06 0.0000000000000000e+00  8.5069360255033509e-08 1.1132457879645727e-06 0.0000000000000000e+00  6.7444301617977012e-08 7.2830061684588828e-07 0.0000000000000000e+00  5.7416574623081162e-08 4.0173627803293661e-07 0.0000000000000000e+00  5.2122996518237582e-08 1.9899650601301765e-07 0.0000000000000000e+00  4.9650727263270064e-08 8.7873595056022663e-08 0.0000000000000000e+00  4.8593552092538218e-08 3.2259292308893247e-08 0.0000000000000000e+00  4.8236329482232485e-08 5.9036100502469739e-09 0.0000000000000000e+00  4.8200281964901303e-08 -5.9323731740963689e-09 0.0000000000000000e+00  4.8310908755538148e-08 -1.0969734831715370e-08 0.0000000000000000e+00  4.8486587738460416e-08 -1.2920277246770439e-08 0.0000000000000000e+00  4.8691826061854800e-08 -1.3514155848237503e-08 0.0000000000000000e+00  4.8911141912975285e-08 -1.3522911851175285e-08 0.0000000000000000e+00  4.9138347494774279e-08 -1.3286686349841168e-08 0.0000000000000000e+00  4.9370511836669769e-08 -1.2944576029235883e-08 0.0000000000000000e+00  4.9609020082256783e-08 -1.2619406294239030e-08 0.0000000000000000e+00  4.9834164038684697e-08 -1.2012963793445917e-08 0.0000000000000000e+00  5.0136080475150185e-08 -1.2790270966024327e-08 0.0000000000000000e+00  3.1579390103041518e-08 1.0506841717852982e-09 0.0000000000000000e+00  2.6321525951366763e-08 2.4968839251158596e-09 0.0000000000000000e+00  2.3729306092648234e-08 2.6049078788370948e-09 0.0000000000000000e+00  2.1561681808545179e-08 2.7436384222446984e-09 0.0000000000000000e+00  1.9353309985798044e-08 2.8628933822570582e-09 0.0000000000000000e+00  1.7068840349125200e-08 2.8682556373034853e-09 0.0000000000000000e+00  1.4782171037577743e-08 2.7577308927339785e-09 0.0000000000000000e+00  1.2576900916521173e-08 2.5665880363466963e-09 0.0000000000000000e+00  1.0514930311276149e-08 2.3315375079417115e-09 0.0000000000000000e+00  8.6325306163152256e-09 2.0801181461020792e-09 0.0000000000000000e+00  6.9455340457115063e-09 1.8300314611353708e-09 0.0000000000000000e+00  5.4561162468094238e-09 1.5909703951780814e-09 0.0000000000000000e+00  4.1587833729789432e-09 1.3665229211008135e-09 0.0000000000000000e+00  3.0451215167606682e-09 1.1556021987188621e-09 0.0000000000000000e+00  2.1074063337572205e-09 9.5348094514608451e-10 0.0000000000000000e+00  1.3411211696601196e-09 7.5284422311598238e-10 0.0000000000000000e+00  7.4604595931183135e-10 5.4584763062242210e-10 0.0000000000000000e+00  3.2493998010413230e-10 3.2964605831268785e-10 0.0000000000000000e+00  7.8544789952709975e-11 1.2145130478970693e-10 0.0000000000000000e+00  0.0000000000000000e+00 -1.5503216297009494e-22 0.0000000000000000e+00  3.9136142240077175e-23 -8.3915631720699600e-20 0.0000000000000000e+00  1.1857911802434363e-07 -4.1158502905359810e-06 0.0000000000000000e+00  1.5621478868105062e-07 1.7848610067254349e-07 0.0000000000000000e+00  1.3177837232940791e-07 1.8241025066332611e-06 0.0000000000000000e+00  1.0523815772500712e-07 1.6477497650353750e-06 0.0000000000000000e+00  8.5028955433660840e-08 1.0777465308953838e-06 0.0000000000000000e+00  7.3555182046260940e-08 5.9575559777408970e-07 0.0000000000000000e+00  6.7499326953532470e-08 2.9598447926718223e-07 0.0000000000000000e+00  6.4669811909521055e-08 1.3176581908494456e-07 0.0000000000000000e+00  6.3455817887516193e-08 4.9431404712417023e-08 0.0000000000000000e+00  6.3038631898114749e-08 1.0333225216629816e-08 0.0000000000000000e+00  6.2985178868855800e-08 -7.3373749112738367e-09 0.0000000000000000e+00  6.3095659352577469e-08 -1.4967729378212005e-08 0.0000000000000000e+00  6.3276555271166751e-08 -1.8043562303595632e-08 0.0000000000000000e+00  6.3486993436629092e-08 -1.9117684016194646e-08 0.0000000000000000e+00  6.3708956450424597e-08 -1.9330297593072886e-08 0.0000000000000000e+00  6.3934969509645235e-08 -1.9183772669354927e-08 0.0000000000000000e+00  6.4160665465942875e-08 -1.8867236775901958e-08 0.0000000000000000e+00  6.4391861270052749e-08 -1.8592336613830394e-08 0.0000000000000000e+00  6.4594938957701551e-08 -1.7794081971830834e-08 0.0000000000000000e+00  6.4925912029261422e-08 -1.9230273459073129e-08 0.0000000000000000e+00  3.4256407559877105e-08 -2.8486677599514935e-09 0.0000000000000000e+00  2.7470132611625355e-08 1.3005687142053155e-09 0.0000000000000000e+00  2.5300806300961173e-08 2.8229285628030137e-09 0.0000000000000000e+00  2.3525502201929950e-08 3.5781542897870336e-09 0.0000000000000000e+00  2.1454264650418051e-08 3.9589925364364054e-09 0.0000000000000000e+00  1.9131398277844180e-08 4.0616048736999736e-09 0.0000000000000000e+00  1.6708052736433403e-08 3.9572858474441439e-09 0.0000000000000000e+00  1.4314670503393861e-08 3.7171462966035631e-09 0.0000000000000000e+00  1.2041227088484539e-08 3.4007362283830736e-09 0.0000000000000000e+00  9.9416231098308145e-09 3.0512566323433577e-09 0.0000000000000000e+00  8.0429635797070159e-09 2.6967899149231258e-09 0.0000000000000000e+00  6.3544965780174879e-09 2.3533409145322208e-09 0.0000000000000000e+00  4.8749274644116599e-09 2.0277104647199908e-09 0.0000000000000000e+00  3.5980603794708392e-09 1.7196927079627186e-09 0.0000000000000000e+00  2.5170004545005069e-09 1.4237401705041976e-09 0.0000000000000000e+00  1.6270447977568531e-09 1.1306562391435919e-09 0.0000000000000000e+00  9.2711194314162119e-10 8.3052787603335463e-10 0.0000000000000000e+00  4.1936587332832402e-10 5.1954822374737877e-10 0.0000000000000000e+00  1.0755682562772482e-10 2.1645974398444324e-10 0.0000000000000000e+00  0.0000000000000000e+00 -1.6490335147170666e-21 0.0000000000000000e+00  -1.7611264008034716e-21 -6.7633494222653357e-20 0.0000000000000000e+00  1.3650526970177679e-07 -5.5973700566101151e-06 0.0000000000000000e+00  1.8057518960157747e-07 2.5010258572338975e-07 0.0000000000000000e+00  1.5348877734680622e-07 2.4797536640160589e-06 0.0000000000000000e+00  1.2447447069377278e-07 2.2423595666042017e-06 0.0000000000000000e+00  1.0230979790712849e-07 1.4665191892810190e-06 0.0000000000000000e+00  8.9752135999104235e-08 8.1180380371589386e-07 0.0000000000000000e+00  8.3111499215411377e-08 4.0417802023584836e-07 0.0000000000000000e+00  7.9994972788945016e-08 1.8095809575045094e-07 0.0000000000000000e+00  7.8640089879942348e-08 6.8939014144635909e-08 0.0000000000000000e+00  7.8154034115177493e-08 1.5698609034266829e-08 0.0000000000000000e+00  7.8064944047295646e-08 -8.4314153877934872e-09 0.0000000000000000e+00  7.8155335848837020e-08 -1.8913222781675127e-08 0.0000000000000000e+00  7.8323523026821666e-08 -2.3204833639249672e-08 0.0000000000000000e+00  7.8525091492208936e-08 -2.4773615403392649e-08 0.0000000000000000e+00  7.8740493678583165e-08 -2.5168454937323741e-08 0.0000000000000000e+00  7.8961977304471590e-08 -2.5076850349498799e-08 0.0000000000000000e+00  7.9183443949409102e-08 -2.4743604158989175e-08 0.0000000000000000e+00  7.9415390462828277e-08 -2.4506538550952346e-08 0.0000000000000000e+00  7.9602434411296713e-08 -2.3464441589945540e-08 0.0000000000000000e+00  7.9975754648405185e-08 -2.5610841062195600e-08 0.0000000000000000e+00  3.6767989394003009e-08 -7.2061254403305850e-09 0.0000000000000000e+00  2.7750779575285995e-08 -5.3765616984124076e-10 0.0000000000000000e+00  2.5764452652715076e-08 2.6092290567919058e-09 0.0000000000000000e+00  2.4421439680829084e-08 4.2062258879724107e-09 0.0000000000000000e+00  2.2617660234978089e-08 4.9898915302632320e-09 0.0000000000000000e+00  2.0397934096871380e-08 5.2668326940571570e-09 0.0000000000000000e+00  1.7969156304624127e-08 5.2102383695953387e-09 0.0000000000000000e+00  1.5504818618171259e-08 4.9431707535474524e-09 0.0000000000000000e+00  1.3122875527078822e-08 4.5558684538948029e-09 0.0000000000000000e+00  1.0895491708101445e-08 4.1113837801126610e-09 0.0000000000000000e+00  8.8619642589547558e-09 3.6507610399942635e-09 0.0000000000000000e+00  7.0396839393984048e-09 3.1980633932305767e-09 0.0000000000000000e+00  5.4326357076070807e-09 2.7645359172694239e-09 0.0000000000000000e+00  4.0377993416547138e-09 2.3517423143434743e-09 0.0000000000000000e+00  2.8498635954734760e-09 1.9539748809353480e-09 0.0000000000000000e+00  1.8645174905528919e-09 1.5606347211834880e-09 