<?xml version="1.0"?>
<VTKFile type="UnstructuredGrid"  version="0.1"  >
<UnstructuredGrid>
<Piece  NumberOfPoints="4881" NumberOfCells="9600">
<Points>
<DataArray  type="Float64"  NumberOfComponents="3"  format="ascii">0 0 0  0.001036163291847321 0 0  0.002072326583694641 0 0  0.003108489875541962 0 0  0.004144653167389283 0 0  0.005180816459236603 0 0  0.006216979751083923 0 0  0.007253143042931244 0 0  0.008289306334778566 0 0  0.009325469626625886 0 0  0.01036163291847321 0 0  0.01139779621032053 0 0  0.01243395950216785 0 0  0.01347012279401517 0 0  0.01450628608586249 0 0  0.01554244937770981 0 0  0.01657861266955713 0 0  0.01761477596140445 0 0  0.01865093925325177 0 0  0.01968710254509909 0 0  0.02072326583694641 0 0  0.06968710254509909 0 0  0.1186509392532518 0 0  0.1676147759614045 0 0  0.2165786126695571 0 0  0.2655424493777098 0 0  0.3145062860858625 0 0  0.3634701227940151 0 0  0.4124339595021678 0 0  0.4613977962103205 0 0  0.5103616329184733 0 0  0.5593254696266259 0 0  0.6082893063347786 0 0  0.6572531430429313 0 0  0.7062169797510839 0 0  0.7551808164592365 0 0  0.8041446531673893 0 0  0.8531084898755419 0 0  0.9020723265836946 0 0  0.9510361632918474 0 0  1 0 0  0 0.025 0  0.001036163291847321 0.025 0  0.002072326583694641 0.025 0  0.003108489875541962 0.025 0  0.004144653167389283 0.025 0  0.005180816459236603 0.025 0  0.006216979751083923 0.025 0  0.007253143042931244 0.025 0  0.008289306334778566 0.025 0  0.009325469626625886 0.025 0  0.01036163291847321 0.025 0  0.01139779621032053 0.025 0  0.01243395950216785 0.025 0  0.01347012279401517 0.025 0  0.01450628608586249 0.025 0  0.01554244937770981 0.025 0  0.01657861266955713 0.025 0  0.01761477596140445 0.025 0  0.01865093925325177 0.025 0  0.01968710254509909 0.025 0  0.02072326583694641 0.025 0  0.06968710254509909 0.025 0  0.1186509392532518 0.025 0  0.1676147759614045 0.025 0  0.2165786126695571 0.025 0  0.2655424493777098 0.025 0  0.3145062860858625 0.025 0  0.3634701227940151 0.025 0  0.4124339595021678 0.025 0  0.4613977962103205 0.025 0  0.5103616329184733 0.025 0  0.5593254696266259 0.025 0  0.6082893063347786 0.025 0  0.6572531430429313 0.025 0  0.7062169797510839 0.025 0  0.7551808164592365 0.025 0  0.8041446531673893 0.025 0  0.8531084898755419 0.025 0  0.9020723265836946 0.025 0  0.9510361632918474 0.025 0  1 0.025 0  0 0.05 0  0.001036163291847321 0.05 0  0.002072326583694641 0.05 0  0.003108489875541962 0.05 0  0.004144653167389283 0.05 0  0.005180816459236603 0.05 0  0.006216979751083923 0.05 0  0.007253143042931244 0.05 0  0.008289306334778566 0.05 0  0.009325469626625886 0.05 0  0.01036163291847321 0.05 0  0.01139779621032053 0.05 0  0.01243395950216785 0.05 0  0.01347012279401517 0.05 0  0.01450628608586249 0.05 0  0.01554244937770981 0.05 0  0.01657861266955713 0.05 0  0.01761477596140445 0.05 0  0.01865093925325177 0.05 0  0.01968710254509909 0.05 0  0.02072326583694641 0.05 0  0.06968710254509909 0.05 0  0.1186509392532518 0.05 0  0.1676147759614045 0.05 0  0.2165786126695571 0.05 0  0.2655424493777098 0.05 0  0.3145062860858625 0.05 0  0.3634701227940151 0.05 0  0.4124339595021678 0.05 0  0.4613977962103205 0.05 0  0.5103616329184733 0.05 0  0.5593254696266259 0.05 0  0.6082893063347786 0.05 0  0.6572531430429313 0.05 0  0.7062169797510839 0.05 0  0.7551808164592365 0.05 0  0.8041446531673893 0.05 0  0.8531084898755419 0.05 0  0.9020723265836946 0.05 0  0.9510361632918474 0.05 0  1 0.05 0  0 0.075 0  0.001036163291847321 0.075 0  0.002072326583694641 0.075 0  0.003108489875541962 0.075 0  0.004144653167389283 0.075 0  0.005180816459236603 0.075 0  0.006216979751083923 0.075 0  0.007253143042931244 0.075 0  0.008289306334778566 0.075 0  0.009325469626625886 0.075 0  0.01036163291847321 0.075 0  0.01139779621032053 0.075 0  0.01243395950216785 0.075 0  0.01347012279401517 0.075 0  0.01450628608586249 0.075 0  0.01554244937770981 0.075 0  0.01657861266955713 0.075 0  0.01761477596140445 0.075 0  0.01865093925325177 0.075 0  0.01968710254509909 0.075 0  0.02072326583694641 0.075 0  0.06968710254509909 0.075 0  0.1186509392532518 0.075 0  0.1676147759614045 0.075 0  0.2165786126695571 0.075 0  0.2655424493777098 0.075 0  0.3145062860858625 0.075 0  0.3634701227940151 0.075 0  0.4124339595021678 0.075 0  0.4613977962103205 0.075 0  0.5103616329184733 0.075 0  0.5593254696266259 0.075 0  0.6082893063347786 0.075 0  0.6572531430429313 0.075 0  0.7062169797510839 0.075 0  0.7551808164592365 0.075 0  0.8041446531673893 0.075 0  0.8531084898755419 0.075 0  0.9020723265836946 0.075 0  0.9510361632918474 0.075 0  1 0.075 0  0 0.1 0  0.001036163291847321 0.1 0  0.002072326583694641 0.1 0  0.003108489875541962 0.1 0  0.004144653167389283 0.1 0  0.005180816459236603 0.1 0  0.006216979751083923 0.1 0  0.007253143042931244 0.1 0  0.008289306334778566 0.1 0  0.009325469626625886 0.1 0  0.01036163291847321 0.1 0  0.01139779621032053 0.1 0  0.01243395950216785 0.1 0  0.01347012279401517 0.1 0  0.01450628608586249 0.1 0  0.01554244937770981 0.1 0  0.01657861266955713 0.1 0  0.01761477596140445 0.1 0  0.01865093925325177 0.1 0  0.01968710254509909 0.1 0  0.02072326583694641 0.1 0  0.06968710254509909 0.1 0  0.1186509392532518 0.1 0  0.1676147759614045 0.1 0  0.2165786126695571 0.1 0  0.2655424493777098 0.1 0  0.3145062860858625 0.1 0  0.3634701227940151 0.1 0  0.4124339595021678 0.1 0  0.4613977962103205 0.1 0  0.5103616329184733 0.1 0  0.5593254696266259 0.1 0  0.6082893063347786 0.1 0  0.6572531430429313 0.1 0  0.7062169797510839 0.1 0  0.7551808164592365 0.1 0  0.8041446531673893 0.1 0  0.8531084898755419 0.1 0  0.9020723265836946 0.1 0  0.9510361632918474 0.1 0  1 0.1 0  0 0.125 0  0.001036163291847321 0.125 0  0.002072326583694641 0.125 0  0.003108489875541962 0.125 0  0.004144653167389283 0.125 0  0.005180816459236603 0.125 0  0.006216979751083923 0.125 0  0.007253143042931244 0.125 0  0.008289306334778566 0.125 0  0.009325469626625886 0.125 0  0.01036163291847321 0.125 0  0.01139779621032053 0.125 0  0.01243395950216785 0.125 0  0.01347012279401517 0.125 0  0.01450628608586249 0.125 0  0.01554244937770981 0.125 0  0.01657861266955713 0.125 0  0.01761477596140445 0.125 0  0.01865093925325177 0.125 0  0.01968710254509909 0.125 0  0.02072326583694641 0.125 0  0.06968710254509909 0.125 0  0.1186509392532518 0.125 0  0.1676147759614045 0.125 0  0.2165786126695571 0.125 0  0.2655424493777098 0.125 0  0.3145062860858625 0.125 0  0.3634701227940151 0.125 0  0.4124339595021678 0.125 0  0.4613977962103205 0.125 0  0.5103616329184733 0.125 0  0.5593254696266259 0.125 0  0.6082893063347786 0.125 0  0.6572531430429313 0.125 0  0.7062169797510839 0.125 0  0.7551808164592365 0.125 0  0.8041446531673893 0.125 0  0.8531084898755419 0.125 0  0.9020723265836946 0.125 0  0.9510361632918474 0.125 0  1 0.125 0  0 0.15 0  0.001036163291847321 0.15 0  0.002072326583694641 0.15 0  0.003108489875541962 0.15 0  0.004144653167389283 0.15 0  0.005180816459236603 0.15 0  0.006216979751083923 0.15 0  0.007253143042931244 0.15 0  0.008289306334778566 0.15 0  0.009325469626625886 0.15 0  0.01036163291847321 0.15 0  0.01139779621032053 0.15 0  0.01243395950216785 0.15 0  0.01347012279401517 0.15 0  0.01450628608586249 0.15 0  0.01554244937770981 0.15 0  0.01657861266955713 0.15 0  0.01761477596140445 0.15 0  0.01865093925325177 0.15 0  0.01968710254509909 0.15 0  0.02072326583694641 0.15 0  0.06968710254509909 0.15 0  0.1186509392532518 0.15 0  0.1676147759614045 0.15 0  0.2165786126695571 0.15 0  0.2655424493777098 0.15 0  0.3145062860858625 0.15 0  0.3634701227940151 0.15 0  0.4124339595021678 0.15 0  0.4613977962103205 0.15 0  0.5103616329184733 0.15 0  0.5593254696266259 0.15 0  0.6082893063347786 0.15 0  0.6572531430429313 0.15 0  0.7062169797510839 0.15 0  0.7551808164592365 0.15 0  0.8041446531673893 0.15 0  0.8531084898755419 0.15 0  0.9020723265836946 0.15 0  0.9510361632918474 0.15 0  1 0.15 0  0 0.175 0  0.001036163291847321 0.175 0  0.002072326583694641 0.175 0  0.003108489875541962 0.175 0  0.004144653167389283 0.175 0  0.005180816459236603 0.175 0  0.006216979751083923 0.175 0  0.007253143042931244 0.175 0  0.008289306334778566 0.175 0  0.009325469626625886 0.175 0  0.01036163291847321 0.175 0  0.01139779621032053 0.175 0  0.01243395950216785 0.175 0  0.01347012279401517 0.175 0  0.01450628608586249 0.175 0  0.01554244937770981 0.175 0  0.01657861266955713 0.175 0  0.01761477596140445 0.175 0  0.01865093925325177 0.175 0  0.01968710254509909 0.175 0  0.02072326583694641 0.175 0  0.06968710254509909 0.175 0  0.1186509392532518 0.175 0  0.1676147759614045 0.175 0  0.2165786126695571 0.175 0  0.2655424493777098 0.175 0  0.3145062860858625 0.175 0  0.3634701227940151 0.175 0  0.4124339595021678 0.175 0  0.4613977962103205 0.175 0  0.5103616329184733 0.175 0  0.5593254696266259 0.175 0  0.6082893063347786 0.175 0  0.6572531430429313 0.175 0  0.7062169797510839 0.175 0  0.7551808164592365 0.175 0  0.8041446531673893 0.175 0  0.8531084898755419 0.175 0  0.9020723265836946 0.175 0  0.9510361632918474 0.175 0  1 0.175 0  0 0.2 0  0.001036163291847321 0.2 0  0.002072326583694641 0.2 0  0.003108489875541962 0.2 0  0.004144653167389283 0.2 0  0.005180816459236603 0.2 0  0.006216979751083923 0.2 0  0.007253143042931244 0.2 0  0.008289306334778566 0.2 0  0.009325469626625886 0.2 0  0.01036163291847321 0.2 0  0.01139779621032053 0.2 0  0.01243395950216785 0.2 0  0.01347012279401517 0.2 0  0.01450628608586249 0.2 0  0.01554244937770981 0.2 0  0.01657861266955713 0.2 0  0.01761477596140445 0.2 0  0.01865093925325177 0.2 0  0.01968710254509909 0.2 0  0.02072326583694641 0.2 0  0.06968710254509909 0.2 0  0.1186509392532518 0.2 0  0.1676147759614045 0.2 0  0.2165786126695571 0.2 0  0.2655424493777098 0.2 0  0.3145062860858625 0.2 0  0.3634701227940151 0.2 0  0.4124339595021678 0.2 0  0.4613977962103205 0.2 0  0.5103616329184733 0.2 0  0.5593254696266259 0.2 0  0.6082893063347786 0.2 0  0.6572531430429313 0.2 0  0.7062169797510839 0.2 0  0.7551808164592365 0.2 0  0.80414
[...]
<PointData  Scalars="f_1003"> 
<DataArray  type="Float64"  Name="f_1003"  format="ascii">9.4175562323814876e-01  3.2963515229671303e-01  1.1651628556375138e-01  4.0986844759946142e-02  1.3813915859327815e-02  4.2858901593357934e-03  8.5594472903003120e-04  -3.3658460013628362e-04  -7.6708097241893775e-04  -9.1587043947927486e-04  -9.6951725319765840e-04  -9.8798408257658589e-04  -9.9461723704887851e-04  -9.9689124585701137e-04  -9.9770358024790632e-04  -9.9798844568950462e-04  -9.9808470370953964e-04  -9.9795739132988435e-04  -9.9841756635528421e-04  -1.0063075249133711e-03  -1.0068320112205209e-03  -1.0045202203977479e-03  -1.0018305216036093e-03  -1.0010081352502377e-03  -1.0008350049484078e-03  -1.0008517871621450e-03  -1.0009100065595819e-03  -1.0009670159121234e-03  -1.0010130625842380e-03  -1.0010476858924693e-03  -1.0010726163395664e-03  -1.0010897873066827e-03  -1.0011008493264030e-03  -1.0011071062161205e-03  -1.0011095641117376e-03  -1.0011090137050445e-03  -1.0011061368105116e-03  -1.0011016542996610e-03  -1.0010965195581328e-03  -1.0010920243544148e-03  -1.0010920786969659e-03  9.3159365320102705e-01  3.2956678369642028e-01  1.1704684330872479e-01  4.0781377125563227e-02  1.3879731140597207e-02  4.2453036654334026e-03  8.6999155145329511e-04  -3.3858002577891253e-04  -7.6029803803628361e-04  -9.1097022998923760e-04  -9.6343056365074623e-04  -9.8216571703066738e-04  -9.8872889291203828e-04  -9.9112097349550693e-04  -9.9201932744298334e-04  -9.9241541731032883e-04  -9.9255703054820831e-04  -9.9245525122341615e-04  -9.9573020217347502e-04  -9.9729235698110060e-04  -9.8132173267360262e-04  -9.9285878287872745e-04  -9.9797937739115844e-04  -9.9985972857600776e-04  -1.0005246357881264e-03  -1.0007781744730319e-03  -1.0008947900971422e-03  -1.0009617408172193e-03  -1.0010065551995296e-03  -1.0010386247811247e-03  -1.0010618458256091e-03  -1.0010783209147807e-03  -1.0010894357703336e-03  -1.0010961893860719e-03  -1.0010993158735939e-03  -1.0010993505352942e-03  -1.0010966879539468e-03  -1.0010916624300264e-03  -1.0010847695414501e-03  -1.0010781710044407e-03  -1.0010926645095796e-03  9.2940477927006770e-01  3.2947789665165411e-01  1.1718673727550474e-01  4.0703169534719662e-02  1.3929556464611935e-02  4.2533113736511448e-03  8.8941560455306609e-04  -3.2562054050607223e-04  -7.4647499093586733e-04  -8.9843736422349878e-04  -9.5126621051460215e-04  -9.7060339825937524e-04  -9.7765576319555170e-04  -9.8055589811382759e-04  -9.8193669216519656e-04  -9.8280882809006977e-04  -9.8363904870561671e-04  -9.8357715399756450e-04  -9.8390576960347728e-04  -9.7786464401584451e-04  -9.7602924114649112e-04  -9.9193171375829632e-04  -9.9780171467969540e-04  -9.9981898419539486e-04  -1.0005085230961172e-03  -1.0007660273750340e-03  -1.0008830775907222e-03  -1.0009502449979603e-03  -1.0009955773284031e-03  -1.0010284296107998e-03  -1.0010525874221943e-03  -1.0010700651910970e-03  -1.0010821958477396e-03  -1.0010899573201079e-03  -1.0010940888416338e-03  -1.0010951511544763e-03  -1.0010935750515650e-03  -1.0010897248269419e-03  -1.0010839995887848e-03  -1.0010765748395241e-03  -1.0010899120201310e-03  9.2721172473443914e-01  3.2816294012113290e-01  1.1749240146380531e-01  4.0724016831427061e-02  1.3986578724812035e-02  4.2658180981796426e-03  9.0181577934142282e-04  -3.1658064623987374e-04  -7.3678148472099527e-04  -8.8864767832055327e-04  -9.4141657468300522e-04  -9.6092884674955231e-04  -9.6827298834219287e-04  -9.7153897023215068e-04  -9.7333336407141099e-04  -9.7457600843025324e-04  -9.7583195714416203e-04  -9.7683769078934948e-04  -9.8084288938094476e-04  -9.6543431634665757e-04  -9.6964024502097033e-04  -9.9051897676637039e-04  -9.9753394490240490e-04  -9.9977294461788295e-04  -1.0004987890723854e-03  -1.0007601345555827e-03  -1.0008764557881316e-03  -1.0009428755905893e-03  -1.0009879631526193e-03  -1.0010209773006458e-03  -1.0010455624880389e-03  -1.0010636285221108e-03  -1.0010764424539164e-03  -1.0010849474823768e-03  -1.0010898714891646e-03  -1.0010917783257935e-03  -1.0010911012839278e-03  -1.0010881710538534e-03  -1.0010832987425377e-03  -1.0010766370746355e-03  -1.0010858945371721e-03  9.2479013578802638e-01  3.2688510034547852e-01  1.1772910184671703e-01  4.0727334242545522e-02  1.4052315457370955e-02  4.2817840562656070e-03  9.1957866840977609e-04  -3.0388620741254554e-04  -7.2362180964330696e-04  -8.7589728763522493e-04  -9.2878593178241100e-04  -9.4864645829838669e-04  -9.5638828583431929e-04  -9.6010422370910022e-04  -9.6238217708827798e-04  -9.6413409615646491e-04  -9.6583048321883147e-04  -9.6616146171761151e-04  -9.7389644786189452e-04  -9.4435722341732452e-04  -9.6131792255150291e-04  -9.8868056597749840e-04  -9.9714729022541736e-04  -9.9970302906258134e-04  -1.0004889635800969e-03  -1.0007584219232318e-03  -1.0008741094841129e-03  -1.0009391862052877e-03  -1.0009834086076581e-03  -1.0010160443743150e-03  -1.0010406039588366e-03  -1.0010588846905059e-03  -1.0010720773403121e-03  -1.0010810784022626e-03  -1.0010865901725662e-03  -1.0010891623988237e-03  -1.0010892126304759e-03  -1.0010870355802136e-03  -1.0010828445212714e-03  -1.0010772665334901e-03  -1.0010814025513039e-03  9.2206974428259092e-01  3.2543814463095871e-01  1.1799617777453081e-01  4.0735079551021847e-02  1.4122041931698824e-02  4.3013499862948031e-03  9.3961166459611547e-04  -2.8879070950451805e-04  -7.0824625547600412e-04  -8.6091684010970824e-04  -9.1399973749521255e-04  -9.3427174271161029e-04  -9.4249672181401624e-04  -9.4675379570975822e-04  -9.4959156943450883e-04  -9.5189634722862772e-04  -9.5456571748391570e-04  -9.5439626629334939e-04  -9.6777574639327925e-04  -9.1902202730981871e-04  -9.5199550344427007e-04  -9.8656101885888857e-04  -9.9668535859031172e-04  -9.9961471792370162e-04  -1.0004780152069515e-03  -1.0007597445766431e-03  -1.0008752531051970e-03  -1.0009386259787654e-03  -1.0009815144456380e-03  -1.0010133396786253e-03  -1.0010375003617444e-03  -1.0010556797259212e-03  -1.0010689855462517e-03  -1.0010782585554209e-03  -1.0010841643393910e-03  -1.0010872264105640e-03  -1.0010878385435797e-03  -1.0010862757045872e-03  -1.0010827687032026e-03  -1.0010782301195678e-03  -1.0010769933566416e-03  9.1921559163536204e-01  3.2390374302294123e-01  1.1825111425438288e-01  4.0743770012292423e-02  1.4193438728651902e-02  4.3223403348439538e-03  9.6058989809049583e-04  -2.7293888326158488e-04  -6.9223590331563803e-04  -8.4534181713814621e-04  -8.9863919743266138e-04  -9.1933079182882624e-04  -9.2804305855462017e-04  -9.3284769538287367e-04  -9.3627743818578768e-04  -9.3904501363693154e-04  -9.4267893683400205e-04  -9.4139565814447179e-04  -9.6168871320043137e-04  -8.9172255670450071e-04  -9.4207750229358925e-04  -9.8429492761471348e-04  -9.9618306012433291e-04  -9.9951548369120653e-04  -1.0004660659112396e-03  -1.0007632264066870e-03  -1.0008791889649044e-03  -1.0009407118019157e-03  -1.0009819389510063e-03  -1.0010126148930808e-03  -1.0010360686703705e-03  -1.0010538772766968e-03  -1.0010670636595876e-03  -1.0010764072710049e-03  -1.0010825297941523e-03  -1.0010859222402046e-03  -1.0010869554615276e-03  -1.0010859023212573e-03  -1.0010830675225291e-03  -1.0010794111489577e-03  -1.0010730532123966e-03  9.1627979474512045e-01  3.2232140871345660e-01  1.1849963602565936e-01  4.0753068203428264e-02  1.4265269200815311e-02  4.3447416168843908e-03  9.8235199900096075e-04  -2.5626465630189832e-04  -6.7555432374671897e-04  -8.2912668928477738e-04  -8.8268393515520901e-04  -9.0382163316554101e-04  -9.1304740087666796e-04  -9.1841229762796705e-04  -9.2247457983785433e-04  -9.2572070759874782e-04  -9.3053180024168451e-04  -9.2786811450855410e-04  -9.5563362291598030e-04  -8.6262894923852735e-04  -9.3185865805188949e-04  -9.8197224432591389e-04  -9.9566896018361481e-04  -9.9941296199529948e-04  -1.0004542298881036e-03  -1.0007684466815053e-03  -1.0008853760527375e-03  -1.0009450252472321e-03  -1.0009843769596823e-03  -1.0010136451558474e-03  -1.0010361406456660e-03  -1.0010533500002532e-03  -1.0010662143522407e-03  -1.0010754499405910e-03  -1.0010816310769767e-03  -1.0010852144715649e-03  -1.0010865526552167e-03  -1.0010859310933904e-03  -1.0010837219560074e-03  -1.0010807692118428e-03  -1.0010698421260183e-03  9.1333730945734359e-01  3.2072689756614531e-01  1.1873484414075387e-01  4.0763003278041797e-02  1.4335804662568426e-02  4.3678127500314601e-03  1.0042530161238508e-03  -2.3933024354917464e-04  -6.5874003389310393e-04  -8.1279330178832254e-04  -8.6663682412714907e-04  -8.8822679407199088e-04  -8.9797359516317161e-04  -9.0389655137435325e-04  -9.0859715507082839e-04  -9.1226711662922659e-04  -9.1831690137518193e-04  -9.1411588837742573e-04  -9.4987559250470565e-04  -8.3274698458216199e-04  -9.2164195803703063e-04  -9.7966374116710466e-04  -9.9516392578567693e-04  -9.9931365665020030e-04  -1.0004440066611663e-03  -1.0007753621587504e-03  -1.0008934557592685e-03  -1.0009512268586568e-03  -1.0009885610321807e-03  -1.0010162259083842e-03  -1.0010375595074547e-03  -1.0010539771288442e-03  -1.0010663446117347e-03  -1.0010753160670754e-03  -1.0010814179384076e-03  -1.0010850735456265e-03  -1.0010866216491759e-03  -1.0010863654870410e-03  -1.0010847122296823e-03  -1.0010823067143322e-03  -1.0010675276535032e-03  9.1045235967732763e-01  3.1915560940209492e-01  1.1895324917190184e-01  4.0773177285425399e-02  1.4403658194350612e-02  4.3910151833413107e-03  1.0258020920348799e-03  -2.2252022691258232e-04  -6.4217164855989760e-04  -7.9670905663830206e-04  -8.5085990795335576e-04  -8.7289907502828069e-04  -8.8316213508486750e-04  -8.8963050265367279e-04  -8.9497257611346104e-04  -8.9904123213445212e-04  -9.0636520810388223e-04  -9.0047233040193241e-04  -9.4447355357029467e-04  -8.0279469297828447e-04  -9.1167748620292130e-04  -9.7743039461018529e-04  -9.9468361976564495e-04  -9.9922245519911746e-04  -1.0004368123181036e-03  -1.0007841361209535e-03  -1.0009032206817875e-03  -1.0009590550439222e-03  -1.0009942615123945e-03  -1.0010201715540397e-03  -1.0010401783213912e-03  -1.0010556431105707e-03  -1.0010673644452700e-03  -1.0010759373876034e-03  -1.0010818419604664e-03  -1.0010854701124122e-03  -1.0010871495538603e-03  -1.0010871975349974e-03  -1.0010860218064863e-03  -1.0010840438473998e-03  -1.0010662080463233e-03  9.0768351109079481e-01  3.1763886321858975e-01  1.1915130158914498e-01  4.0783425812270499e-02  1.4467549261345873e-02  4.4138611100488856e-03  1.0465631995744710e-03  -2.0618366381376684e-04  -6.2618779746095019e-04  -7.8120220328306675e-04  -8.3567423720119110e-04  -8.5815109198888963e-04  -8.6891593245363899e-04  -8.7590528704345136e-04  -8.8186914768463381e-04  -8.8629805138821464e-04  -8.9490880589981349e-04  -8.8724123317898717e-04  -9.3953185571121159e-04  -7.7343627761496927e-04  -9.0218681290575478e-04  -9.7532457613615188e-04  -9.9424044863921646e-04  -9.9914285604932166e-04  -1.0004337420239501e-03  -1.0007949811664165e-03  -1.0009145582353055e-03  -1.0009683116437365e-03  -1.0010012831499241e-03  -1.0010253141909053e-03  -1.0010438591486045e-03  -1.0010582368900577e-03  -1.0010691860276391e-03  -1.0010772464789563e-03  -1.0010828542163170e-03  -1.0010863718243285e-03  -1.0010881163345681e-03  -1.0010884103533631e-03  -1.0010876361621224e-03  -1.0010860031529334e-03  -1.0010659282411812e-03  9.0508381680262029e-01  3.1620526931493492e-01  1.1932595343832737e-01  4.0793529357553426e-02  1.4526338029981423e-02  4.4358923263715030e-03  1.0661324390111588e-03  -1.9064479528104546e-04  -6.1110243311674687e-04  -7.6657662514261610e-04  -8.2137658978259317e-04  -8.4427075779515794e-04  -8.5551315968503876e-04  -8.6299169131671277e-04  -8.6954871885259100e-04  -8.7429471343694143e-04  -8.8416954440438840e-04  -8.7468612815648071e-04  -9.3513109951112998e-04  -7.4527646842178314e-04  -8.9336395226047370e-04  -9.7339177085793867e-04  -9.9384453904873037e-04  -9.9907733602484306e-04  -1.0004355249532918e-03  -1.0008080586350211e-03  -1.0009273951738884e-03  -1.0009788407630352e-03  -1.0010094582256688e-03  -1.0010315013674108e-03  -1.0010484721655326e-03  -1.0010616513862999e-03  -1.0010717231051769e-03  -1.0010791757965878e-03  -1.0010844038379953e-03  -1.0010877418397276e-03  -1.0010894945687229e-03  -1.0010899802106665e-03  -1.0010895400516186e-03  -1.0010882008734197e-03  -1.0010666912004028e-03  9.0270036788416652e-01  3.1488037078370601e-01  1.1947461790188661e-01  4.0803308679827559e-02  1.4579026100883012e-02  4.4567034008142986e-03  1.0841567752073226e-03  -1.7618794008632298e-04  -5.9718946334853514e-04  -7.5309759844095032e-04  -8.0822607131161080e-04  -8.3150985911064116e-04  -8.4319670320444470e-04  -8.5112316742986442e-04  -8.5823302575700820e-04  -8.6325033402948417e-04  -8.7434212843909189e-04  -8.6304449825395154e-04  -9.3134054069804668e-04  -7.1885027919871432e-04  -8.8537714729575081e-04  -9.7167113817550014e-04  -9.9350428423420072e-04  -9.9902764926213775e-04  -1.0004425715438431e-03  -1.0008234347664230e-03  -1.0009416569368614e-03  -1.0009905077633541e-03  -1.0010186379249386e-03  -1.0010385928723425e-03  -1.0010538944797058e-03  -1.0010657829673528e-03  -1.0010748905677502e-03  -1.0010816571068926e-03  -1.0010864373426720e-03  -1.0010895384697893e-03  -1.0010912502275530e-03  -1.0010918778088195e-03  -1.0010917150073549e-03  -1.0010906427029751e-03  -1.0010684663001167e-03  9.0057449477692997e-01  3.1368670975180341e-01  1.1959515190019206e-01  4.0812596276028533e-02  1.4624751746629645e-02  4.4759297581170154e-03  1.1003248752995260e-03  -1.6306554756931329e-04  -5.8469049296622200e-04  -7.4099881654859684e-04  -7.9645037470482173e-04  -8.2008942385150411e-04  -8.3218026351491396e-04  -8.4050642520320260e-04  -8.4811887625120053e-04  -8.5335788391285178e-04  -8.6559534089527320e-04  -8.5252364255453540e-04  -9.2821854921430410e-04  -6.9463268082960823e-04  -8.7837073055258583e-04  -9.7019582772170051e-04  -9.9322659208044874e-04  -9.9899502883335272e-04  -1.0004550457867164e-03  -1.0008410748036320e-03  -1.0009572446572220e-03  -1.0010031827392262e-03  -1.0010286839463377e-03  -1.0010464571060650e-03  -1.0010600086879219e-03  -1.0010705308734090e-03  -1.0010786041421329e-03  -1.0010846212382323e-03  -1.0010888985091152e-03  -1.0010917155037892e-03  -1.0010933437435087e-03  -1.0010940690295144e-03  -1.0010941376431936e-03  -1.0010933222240697e-03  -1.0010711957972344e-03  8.9874170327266911e-01  3.1264382095834914e-01  1.1968586518349786e-01  4.0821242878956103e-02  1.4662791239066716e-02  4.4932508941684735e-03  1.1143691525418436e-03  -1.5149647961783624e-04  -5.7381332611566827e-04  -7.3048124054754819e-04  -7.8624500049537477e-04  -8.1019906118379127e-04  -8.2264669005076686e-04  -8.3131794467314335e-04  -8.3937436274331254e-04  -8.4478311329255437e-04  -8.5807397755142717e-04  -8.4330276939946491e-04  -9.2581154509086753e-04  -6.7303781202705836e-04  -8.7246589705382066e-04  -9.6899318823577985e-04  -9.9301698963535001e-04  -9.9898030389894269e-04  -1.0004729309036607e-03  -1.0008608561586649e-03  -1.0009740264976242e-03  -1.0010167299616675e-03  -1.0010394617040082e-03  -1.0010549676610918e-03  -1.0010667013847336e-03  -1.0010757966328792e-03  -1.0010827801913479e-03  -1.0010879980730900e-03  -1.0010917286163079e-03  -1.0010942228741181e-03  -1.0010957310629097e-03  -1.0010965154467672e-03  -1.0010967788166830e-03  -1.0010962209501672e-03  -1.0010748000507765e-03  8.9723168984341506e-01  3.1176822948098004e-01  1.1974551680939585e-01  4.0829115556633953e-02  1.4692557910323020e-02  4.5083890318096675e-03  1.1260648340361034e-03  -1.4166685197480804e-04  -5.6473270197052552e-04  -7.2171368858512156e-04  -7.7777373860429908e-04  -8.0199760862073837e-04  -8.1474919633519130e-04  -8.2370563195267052e-04  -8.3214006171599547e-04  -8.3766466857415124e-04  -8.5189834551680323e-04  -8.3553322019732171e-04  -9.2415458499659994e-04  -6.5442064725438395e-04  -8.6776136162095496e-04  -9.6808489717695135e-04  -9.9287966286725599e-04  -9.9898396061558095e-04  -1.0004960781032463e-03  -1.0008825877754939e-03  -1.0009918382428368e-03  -1.0010310027946388e-03  -1.0010508357883761e-03  -1.0010640006083884e-03  -1.0010738618587433e-03  -1.0010814835614285e-03  -1.0010873356239599e-03  -1.0010917167247752e-03  -1.0010948668947547e-03  -1.0010970074511925e-03  -1.0010983646026926e-03  -1.0010991748060996e-03  -1.0010996035090169e-03  -1.0010993092786919e-03  -1.0010791818969224e-03  8.9606833852511036e-01  3.1107345183192281e-01  1.1977331574051724e-01  4.0836097798971578e-02  1.4713602091324595e-02  4.5211091204550389e-03  1.1352298321504728e-03  -1.3373018907564230e-04  -5.5759049554907417e-04  -7.1483308820089397e-04  -7.7116891114343677e-04  -7.9561322951824146e-04  -8.0861125203576475e-04  -8.1778870824131635e-04  -8.2652921349644199e-04  -8.3211460590928315e-04  -8.4716471723160827e-04  -8.2933876271998786e-04  -9.2327120824251961e-04  -6.3907758627028812e-04  -8.6433374446129448e-04  -9.6748705724490635e-04  -9.9281746880686139e-04  -9.9900616999128384e-04  -1.0005242387162727e-03  -1.0009060288133269e-03  -1.0010104886914229e-03  -1.0010458427277308e-03  -1.0010626676422709e-03  -1.0010734327395270e-03  -1.0010813811536542e-03  -1.0010874964176794e-03  -1.0010921879269850e-03  -1.0010957058327085e-03  -1.0010982510911886e-03  -1.0011000138637749e-03  -1.0011011941187694e-03  -1.0011020015776252e-03  -1.0011025712449073e-03  -1.0011025479435165e-03  -1.0010842304275910e-03  8.9526972104768832e-01  3.1056999533330376e-01  1.1976892053607222e-01  4.0842089325552798e-02  1.4725610937684413e-02  4.5312186608534493e-03  1.1417246052747711e-03  -1.2780755476005543e-04  -5.5249583031525672e-04  -7.0994458055515278e-04  -7.6653150735429896e-04  -7.9114361864960801e-04  -8.0432683182301136e-04  -8.1365790553477191e-04  -8.2262779539416105e-04  -8.2821842101496847e-04  -8.4394538976395421e-04  -8.2481581448091729e-04  -9.2317349973362764e-04  -6.2724691041529321e-04  -8.6223783331968644e-04  -9.6721026754621351e-04  -9.9283193890970477e-04  -9.9904679842828699e-04  -1.0005570836326316e-03  -1.0009309039094344e-03  -1.0010297668328694e-03  -1.0010610810814767e-03  -1.0010748151059012e-03  -1.0010831407973014e-03  -1.0010891516025204e-03  -1.0010937412899767e-03  -1.0010972553210144e-03  -1.0010998939480604e-03  -1.0011018180788082e-03  -1.0011031852875008e-03  -1.0011041675128652e-03  -1.0011049476159927e-03  -1.0011056368894459e-03  -1.0011058897215761e-03  -1.0010898243223720e-03  8.9484809682003208e-01  3.1026535815641987e-01  1.1973243928073107e-01  4.0847005995130539e-02  1.4728408336751535e-02  4.5385676080698725e-03  1.1454520509868503e-03  -1.2398766286239935e-04  -5.4952519416243302e-04  -7.0712163228792873e-04  -7.6393127558998977e-04  -7.8865607151602215e-04  -8.0196048570337173e-04  -8.1137557196810962e-04  -8.2049465694424418e-04  -8.2603519105593922e-04  -8.4228877671757379e-04  -8.2203356153387247e-04  -9.2386209737672215e-04  -6.1910908098251904e-04  -8.6150675714310012e-04  -9.6725967902105178e-04  -9.9292328127228990e-04  -9.9910541055328703e-04  -1.0005942143625044e-03  -1.0009569146218562e-03  -1.0010494489787105e-03  -1.0010765420948452e-03  -1.0010871333126744e-03  -1.0010930015987049e-03  -1.0010970668486868e-03  -1.0011001257300501e-03  -1.0011024570523545e-03  -1.0011042099896848e-03  -1.0011055044739545e-03  -1.0011064641902618e-03  -1.0011072316046339e-03  -1.0011079629270053e-03  -1.0011087516969581e-03  -1.0011092812560892e-03  -1.0010958348266358e-03  8.9480991281079336e-01  3.1016402922651154e-01  1.1966442951917013e-01  4.0850779741505631e-02  1.4721954844187679e-02  4.5430483100377273e-03  1.1463574471988552e-03  -1.2232693482690506e-04  -5.4872249682878511e-04  -7.0640609790458410e-04  -7.6340679397524764e-04  -7.8818755977321788e-04  -8.0154740747641199e-04  -8.1097572817405731e-04  -8.2016156830492213e-04  -8.2559763497596066e-04  -8.4221946588597786e-04  -8.2103405037245848e-04  -9.2532620611570791e-04  -6.1478692675062023e-04  -8.6215210465994416e-04  -9.6763503927681195e-04  -9.9309038502707106e-04  -